16
energy: -21.783643973591 gnorm: 0.000018958703 xtb: 6.5.1 (9af7eec)
C          1.46400       -0.34080       -0.34060
H          1.87440       -0.55780       -1.33670
O          2.47610        0.21220        0.47590
C          0.23010        0.55260       -0.48840
H          0.54970        1.55740       -0.78300
H         -0.37130        0.14630       -1.30420
C         -0.65190        0.64570        0.76040
H         -0.89520       -0.35850        1.11220
H         -1.58420        1.13900        0.47850
H          2.74860        1.05940        0.10480
H          1.19370       -1.28670        0.13390
C         -0.03770        1.42990        1.92910
H          0.42850        2.35300        1.54690
H         -0.83370        1.71790        2.62170
O          0.87280        0.69250        2.69610
H          1.59120        0.39870        2.10980
