16
energy: -21.780471775343 gnorm: 0.000042428947 xtb: 6.5.1 (9af7eec)
C          1.17040       -0.35870       -0.01580
H          1.29130       -1.29150       -0.57360
O          2.40700       -0.09780        0.59510
C          0.71730        0.74640       -0.98500
H          1.32370        0.69530       -1.89110
H         -0.32000        0.54610       -1.26000
C          0.83660        2.16630       -0.42010
H          0.36060        2.85420       -1.12130
H          1.89380        2.43860       -0.35720
H          2.23700        0.56990        1.27730
H          0.39860       -0.51670        0.74880
C          0.20300        2.35160        0.96360
H         -0.11630        3.39400        1.09050
H         -0.67440        1.71070        1.07320
O          1.07410        1.99090        2.02010
H          1.78530        2.64010        2.06730
