16
energy: -21.781480334036 gnorm: 0.000013846267 xtb: 6.5.1 (9af7eec)
C          1.62890       -0.09410       -0.08450
H          1.91790       -1.08380       -0.44840
O          2.65820        0.77350       -0.49260
C          0.25350        0.29260       -0.63600
H         -0.46630       -0.44700       -0.28360
H         -0.03280        1.26180       -0.22030
C          0.23060        0.37390       -2.17000
H         -0.65490       -0.12570       -2.56410
H          1.10920       -0.13820       -2.57040
H          2.37910        1.67890       -0.30210
H          1.57780       -0.13400        1.01440
C          0.22220        1.81590       -2.68580
H          0.20630        1.80420       -3.78650
H         -0.67370        2.33710       -2.33770
O          1.30800        2.58100       -2.22300
H          2.11930        2.08650       -2.39990
