29
energy: -42.542541307811 gnorm: 0.000030632245 xtb: 6.5.1 (9af7eec)
N         -2.67480       -1.05360        0.75390
H         -2.70600       -1.53530       -0.13020
C         -2.12120        0.29460        0.72260
H         -1.92430        0.52540       -0.32950
C         -3.12180        1.32880        1.25840
H         -3.27980        1.17850        2.32750
H         -4.07710        1.17770        0.74960
C         -2.64820        2.75460        1.01380
H         -1.66820        2.93060        1.45200
H         -3.36430        3.46090        1.43320
S         -2.51330        3.13730       -0.77430
C         -0.71530        3.33410       -0.94290
H         -0.20800        2.46810       -0.52640
H         -0.40710        4.24500       -0.43680
H         -0.51260        3.41550       -2.00570
C         -0.76700        0.40470        1.45290
O          0.22770        0.79610        0.86760
N         -0.80430        0.08160        2.74830
H         -1.67140       -0.28490        3.13700
C         -3.23020       -1.67410        1.81400
O         -3.23760       -1.21090        2.94230
C         -3.83650       -3.01820        1.48020
H         -3.07830       -3.67960        1.06620
H         -4.63420       -2.89920        0.75020
H         -4.24300       -3.46080        2.38480
C          0.36490        0.11780        3.59110
H          0.60540       -0.88180        3.95750
H          1.19770        0.49650        3.00000
H          0.19400        0.77640        4.44420
