29
energy: -42.537589862040 gnorm: 0.000027644490 xtb: 6.5.1 (9af7eec)
N         -1.72800       -0.54990        0.93120
H         -0.77900       -0.90070        0.95500
C         -1.84060        0.88170        1.06040
H         -2.59370        1.23200        0.34280
C         -2.29490        1.28660        2.47710
H         -3.27330        0.84090        2.66330
H         -2.40220        2.37160        2.53380
C         -1.31090        0.82070        3.53780
H         -0.30500        1.19240        3.33380
H         -1.28970       -0.26800        3.59690
S         -1.81440        1.45860        5.17510
C         -0.53150        0.65510        6.17470
H         -0.63610       -0.42400        6.10100
H         -0.68400        0.97400        7.20010
H          0.44890        0.96960        5.82760
C         -0.47020        1.48530        0.74420
O          0.53590        0.80360        0.70920
N         -0.48370        2.81280        0.53760
H         -1.35920        3.31010        0.56720
C         -2.76200       -1.32390        0.52750
O         -3.87640       -0.87830        0.35500
C         -2.39070       -2.77880        0.33870
H         -1.65040       -2.87100       -0.45290
H         -3.27760       -3.34430        0.06900
H         -1.97030       -3.18080        1.25750
C          0.71170        3.57530        0.26720
H          0.86950        4.32960        1.03990
H          1.54940        2.88020        0.26260
H          0.64360        4.06590       -0.70490
