29
energy: -42.539636876184 gnorm: 0.000048084634 xtb: 6.5.1 (9af7eec)
N         -2.27360       -0.94190        0.21910
H         -2.87570       -1.26120       -0.52960
C         -2.11330        0.49060        0.27190
H         -2.01140        0.78010        1.32450
C         -0.86690        0.94190       -0.51220
H         -0.85760        2.03050       -0.59730
H         -0.92590        0.52490       -1.52010
C          0.41160        0.48380        0.17290
H          0.44790       -0.59950        0.27470
H          0.49800        0.92870        1.16330
S          1.89800        1.01450       -0.73680
C          1.92990       -0.24380       -2.04480
H          1.96500       -1.23070       -1.59210
H          2.83040       -0.06810       -2.62340
H          1.05720       -0.14300       -2.68340
C         -3.35720        1.12240       -0.36170
O         -4.07900        0.49130       -1.10730
N         -3.54680        2.41450       -0.04440
H         -2.91760        2.86460        0.60120
C         -1.99270       -1.74690        1.27140
O         -1.42930       -1.34360        2.26690
C         -2.41640       -3.18420        1.06220
H         -3.50200       -3.24220        1.02270
H         -2.05640       -3.78980        1.88860
H         -2.01340       -3.56560        0.12710
C         -4.63790        3.19780       -0.57360
H         -4.25940        4.05400       -1.13420
H         -5.21010        2.55350       -1.23860
H         -5.28360        3.55230        0.23130
