29
energy: -42.544256723901 gnorm: 0.000029371636 xtb: 6.5.1 (9af7eec)
N         -1.52970       -1.76790        1.02570
H         -0.95670       -2.34630        1.62410
C         -1.59130       -0.35390        1.34840
H         -2.63870       -0.03800        1.24800
C         -1.08440       -0.09070        2.76340
H         -1.21390        0.97400        2.96700
H         -0.01050       -0.28800        2.78700
C         -1.80720       -0.89470        3.83520
H         -2.86610       -0.99790        3.59980
H         -1.70710       -0.42220        4.81220
S         -1.18670       -2.60470        4.02790
C          0.34440       -2.27640        4.94360
H          0.99830       -1.63590        4.35910
H          0.81950       -3.23700        5.11140
H          0.10100       -1.81040        5.89460
C         -0.75150        0.45830        0.33220
O          0.28310        1.01720        0.63720
N         -1.29960        0.46910       -0.88930
H         -2.13140       -0.09380       -1.05110
C         -2.34100       -2.34830        0.12290
O         -3.08430       -1.70240       -0.59930
C         -2.22780       -3.85260        0.07460
H         -1.23130       -4.13520       -0.25790
H         -2.96180       -4.24800       -0.62120
H         -2.39660       -4.27210        1.06380
C         -0.67460        1.11390       -2.01740
H         -1.35780        1.83790       -2.46410
H          0.21610        1.62760       -1.65880
H         -0.39050        0.38000       -2.77410
