29
energy: -42.543953980924 gnorm: 0.000038769001 xtb: 6.5.1 (9af7eec)
N         -0.89580       -0.89820       -0.11390
H         -1.46190       -1.13080       -0.91440
C         -0.95530        0.47220        0.36560
H         -0.03030        0.65350        0.92350
C         -1.08990        1.45980       -0.79000
H         -2.15290        1.58510       -1.01230
H         -0.59240        1.06290       -1.67870
C         -0.46260        2.80410       -0.44700
H         -0.66090        3.53890       -1.22810
H          0.61540        2.70210       -0.32120
S         -1.04000        3.50560        1.13420
C         -2.72860        3.99090        0.68690
H         -2.70170        4.58260       -0.22370
H         -3.10410        4.59010        1.50960
H         -3.34070        3.10140        0.56610
C         -2.15730        0.58450        1.32750
O         -3.26380        0.91910        0.94440
N         -1.86360        0.21890        2.58070
H         -0.94730       -0.16570        2.77180
C         -0.34360       -1.88140        0.63210
O          0.18970       -1.66060        1.70260
C         -0.43180       -3.25390        0.00520
H         -1.47100       -3.57520       -0.02860
H          0.13800       -3.95850        0.60360
H         -0.03760       -3.23540       -1.00810
C         -2.84740        0.18420        3.63390
H         -2.99440       -0.83610        3.99320
H         -2.52980        0.81440        4.46590
H         -3.78400        0.56410        3.22860
