29
energy: -42.542588903568 gnorm: 0.000040297114 xtb: 6.5.1 (9af7eec)
N         -1.15650       -1.20810       -0.74180
H         -1.71320       -0.78190       -1.47280
C         -0.86010       -0.33820        0.36770
H         -1.14560       -0.84640        1.29910
C          0.64530        0.01110        0.44110
H          0.79230        1.08730        0.32220
H          1.15350       -0.48480       -0.38800
C          1.27220       -0.47380        1.73810
H          2.35420       -0.34470        1.73430
H          1.03430       -1.52610        1.89090
S          0.63370        0.40930        3.20150
C          1.61750        1.93540        3.09400
H          2.67070        1.68950        3.19490
H          1.30560        2.56920        3.91720
H          1.43060        2.43540        2.14810
C         -1.71740        0.92140        0.20390
O         -2.33630        1.14570       -0.81880
N         -1.68890        1.72840        1.27330
H         -1.17250        1.42910        2.09510
C         -0.84980       -2.52240       -0.73290
O         -0.23390       -3.03780        0.17830
C         -1.33010       -3.26860       -1.95880
H         -2.41580       -3.23080       -2.01130
H         -1.00880       -4.30420       -1.89920
H         -0.92210       -2.81300       -2.85800
C         -2.42740        2.96470        1.34230
H         -3.16580        2.92740        2.14490
H         -1.75270        3.80470        1.51840
H         -2.93610        3.10270        0.38960
