20
energy: -19.992961767873 gnorm: 0.000031892224 xtb: 6.5.1 (9af7eec)
C         -2.78380       -0.19650       -1.65400
C         -1.95380        0.61830       -0.66930
C         -1.17210       -0.28170        0.28550
C         -0.23520        0.48540        1.21880
C         -0.96740        1.35100        2.24220
C          0.00210        2.00220        3.22130
H         -3.33940        0.45810       -2.32180
H         -3.49380       -0.82720       -1.12300
H         -2.14290       -0.83710       -2.25640
H         -2.61710        1.27200       -0.10070
H         -1.25420        1.25050       -1.22120
H         -0.57710       -0.98230       -0.30630
H         -1.87400       -0.86940        0.88230
H          0.42990        1.11610        0.62370
H          0.38810       -0.23470        1.75550
H         -1.67840        0.73140        2.79400
H         -1.53250        2.13090        1.72930
H         -0.53350        2.62020        3.93840
H          0.71400        2.63110        2.69080
H          0.55860        1.24480        3.76940
