20
energy: -19.992925439127 gnorm: 0.000031962387 xtb: 6.5.1 (9af7eec)
C         -2.73360       -0.04950        0.31470
C         -1.73140        0.85630       -0.39150
C         -0.41630        0.15300       -0.72900
C          0.40480       -0.22270        0.50250
C          1.75660       -0.82330        0.12380
C          2.57140       -1.20730        1.35290
H         -3.67710        0.47220        0.45930
H         -2.36430       -0.35550        1.28990
H         -2.92290       -0.94180       -0.27830
H         -1.52350        1.72590        0.23640
H         -2.17930        1.21970       -1.31970
H          0.18250        0.81610       -1.35900
H         -0.62910       -0.74780       -1.30980
H         -0.14520       -0.94600        1.10710
H          0.56600        0.66890        1.11360
H          2.31880       -0.10090       -0.47260
H          1.59610       -1.70870       -0.49600
H          3.52970       -1.63130        1.06140
H          2.03780       -1.94400        1.94980
H          2.75740       -0.33420        1.97500
