20
energy: -19.992925428889 gnorm: 0.000020565996 xtb: 6.5.1 (9af7eec)
C         -2.61060        0.19850        0.66450
C         -1.67100        0.88840       -0.31770
C         -0.34110        0.15510       -0.49650
C         -0.48280       -1.19900       -1.18810
C          0.87360       -1.85150       -1.44510
C          0.73140       -3.20580       -2.12900
H         -3.50390        0.80010        0.81820
H         -2.12070        0.06100        1.62620
H         -2.91910       -0.77480        0.29240
H         -1.46470        1.89890        0.04380
H         -2.16450        0.98010       -1.28810
H          0.12600        0.01430        0.48130
H          0.32660        0.78330       -1.09190
H         -1.00330       -1.06460       -2.13970
H         -1.08450       -1.86840       -0.57090
H          1.39800       -1.97810       -0.49500
H          1.47950       -1.19150       -2.07070
H          1.70760       -3.65220       -2.30390
H          0.22670       -3.09820       -3.08670
H          0.14910       -3.88620       -1.51100
